PS with 0 chains and 64 internal PS monomers per chain and 64 int PMMA monomers per chainand 0 ions 33 waters

33 atoms
22 bonds
11 angles
0 dihedrals
0 impropers

2 atom types
1 bond types
1 angle types
0 dihedral types

34.7166817159 355.925029636 xlo xhi
5.75178726967 124.43176892 ylo yhi
8.05916077445 122.124395416 zlo zhi

Masses

1 15.9994
2 1.008

Bond Coeffs

1 1000.0 1.0

Angle Coeffs

1 100.0 109.47


Atoms

1 1 1 -0.82 46.449 12.733 79.326 0 0 0
2 1 2 0.41 45.489 12.383 79.541 0 0 0
3 1 2 0.41 46.859 13.424 79.987 0 0 0
4 1 1 -0.82 39.871 94.018 62.356 0 0 0
5 1 2 0.41 40.911 94.097 62.369 0 0 0
6 1 2 0.41 39.377 94.951 62.651 0 0 0
7 1 1 -0.82 103.966 55.071 52.174 0 0 0
8 1 2 0.41 103.551 55.982 52.300 0 0 0
9 1 2 0.41 104.781 55.221 51.472 0 0 0
10 1 1 -0.82 160.934 43.977 19.330 0 0 0
11 1 2 0.41 160.812 44.903 18.842 0 0 0
12 1 2 0.41 161.984 43.912 19.522 0 0 0
13 1 1 -0.82 183.754 12.733 79.326 0 0 0
14 1 2 0.41 182.795 12.383 79.541 0 0 0
15 1 2 0.41 184.165 13.424 79.987 0 0 0
16 1 1 -0.82 208.885 9.245 43.655 0 0 0
17 1 2 0.41 209.206 8.294 43.505 0 0 0
18 1 2 0.41 208.298 9.388 44.531 0 0 0
19 1 1 -0.82 211.255 13.913 15.262 0 0 0
20 1 2 0.41 211.251 14.698 15.911 0 0 0
21 1 2 0.41 212.035 13.962 14.604 0 0 0
22 1 1 -0.82 246.449 12.733 79.326 0 0 0
23 1 2 0.41 245.489 12.383 79.541 0 0 0
24 1 2 0.41 246.859 13.424 79.987 0 0 0
25 1 1 -0.82 239.871 94.018 62.356 0 0 0
26 1 2 0.41 240.911 94.097 62.369 0 0 0
27 1 2 0.41 239.377 94.951 62.651 0 0 0
28 1 1 -0.82 220.083 71.932 29.460 0 0 0
29 1 2 0.41 221.027 71.542 29.591 0 0 0
30 1 2 0.41 219.609 71.816 30.417 0 0 0
31 1 1 -0.82 303.966 55.071 52.174 0 0 0
32 1 2 0.41 303.551 55.982 52.300 0 0 0
33 1 2 0.41 304.781 55.221 51.472 0 0 0

Bonds

1 1 1 2
2 1 1 3
3 1 4 5
4 1 4 6
5 1 7 8
6 1 7 9
7 1 10 11
8 1 10 12
9 1 13 14
10 1 13 15
11 1 16 17
12 1 16 18
13 1 19 20
14 1 19 21
15 1 22 23
16 1 22 24
17 1 25 26
18 1 25 27
19 1 28 29
20 1 28 30
21 1 31 32
22 1 31 33

Angles

1 1 2 1 3
2 1 5 4 6
3 1 8 7 9
4 1 11 10 12
5 1 14 13 15
6 1 17 16 18
7 1 20 19 21
8 1 23 22 24
9 1 26 25 27
10 1 29 28 30
11 1 32 31 33
